LAMMPS Description

2486  atoms
1530  bonds
1350  angles
1170  dihedrals
0  impropers

10  atom types
7  bond types
10  angle types
11  dihedral types
1  improper types

-60.0 60.0 xlo xhi
-60.0 60.0 ylo yhi
-60.0 60.0 zlo zhi

Masses

1 196.9700  # Au
2 12.01100  # C0
3 14.02700  # C2
4 15.03500  # C3
5 32.06000  # S
6 15.99940  # OE
7 15.99940  # OH
8 15.99940  # O1
9 15.99940  # O2
10 1.00800  # H

Atoms

1 1 1 0. 9.33604 0.00000 5.76999
2 2 1 0. 9.33604 0.00000 -5.76999
3 3 1 0. 5.76999 9.33604 0.00000
4 4 1 0. -5.76999 9.33604 0.00000
5 5 1 0. 0.00000 5.76999 9.33604
6 6 1 0. 0.00000 -5.76999 9.33604
7 7 1 0. 5.76999 -9.33604 0.00000
8 8 1 0. 0.00000 5.76999 -9.33604
9 9 1 0. -9.33604 0.00000 5.76999
10 10 1 0. 0.00000 -5.76999 -9.33604
11 11 1 0. -9.33604 0.00000 -5.76999
12 12 1 0. -5.76999 -9.33604 0.00000
13 13 1 0. 9.33604 0.00000 2.88500
14 14 1 0. 9.33604 0.00000 0.00000
15 15 1 0. 9.33604 0.00000 -2.88500
16 16 1 0. 8.44453 2.33401 4.32749
17 17 1 0. 7.55302 4.66802 2.88500
18 18 1 0. 6.66150 7.00203 1.44250
19 19 1 0. 7.00203 1.44250 6.66150
20 20 1 0. 4.66802 2.88500 7.55302
21 21 1 0. 2.33401 4.32749 8.44453
22 22 1 0. 7.00203 -1.44250 6.66150
23 23 1 0. 4.66802 -2.88500 7.55302
24 24 1 0. 2.33401 -4.32749 8.44453
25 25 1 0. 8.44453 -2.33401 4.32749
26 26 1 0. 7.55302 -4.66802 2.88500
27 27 1 0. 6.66150 -7.00203 1.44250
28 28 1 0. -8.44453 2.33401 -4.32749
29 29 1 0. -7.55302 4.66802 -2.88500
30 30 1 0. -6.66150 7.00203 -1.44250
31 31 1 0. -7.00203 1.44250 -6.66150
32 32 1 0. -4.66802 2.88500 -7.55302
33 33 1 0. -2.33401 4.32749 -8.44453
34 34 1 0. -9.33604 0.00000 -2.88500
35 35 1 0. -9.33604 0.00000 0.00000
36 36 1 0. -9.33604 0.00000 2.88500
37 37 1 0. -7.00203 -1.44250 -6.66150
38 38 1 0. -4.66802 -2.88500 -7.55302
39 39 1 0. -2.33401 -4.32749 -8.44453
40 40 1 0. -8.44453 -2.33401 -4.32749
41 41 1 0. -7.55302 -4.66802 -2.88500
42 42 1 0. -6.66150 -7.00203 -1.44250
43 43 1 0. 8.44453 2.33401 -4.32749
44 44 1 0. 7.55302 4.66802 -2.88500
45 45 1 0. 6.66150 7.00203 -1.44250
46 46 1 0. 8.44453 -2.33401 -4.32749
47 47 1 0. 7.55302 -4.66802 -2.88500
48 48 1 0. 6.66150 -7.00203 -1.44250
49 49 1 0. 7.00203 1.44250 -6.66150
50 50 1 0. 4.66802 2.88500 -7.55302
51 51 1 0. 2.33401 4.32749 -8.44453
52 52 1 0. 7.00203 -1.44250 -6.66150
53 53 1 0. 4.66802 -2.88500 -7.55302
54 54 1 0. 2.33401 -4.32749 -8.44453
55 55 1 0. -8.44453 2.33401 4.32749
56 56 1 0. -7.55302 4.66802 2.88500
57 57 1 0. -6.66150 7.00203 1.44250
58 58 1 0. -7.00203 1.44250 6.66150
59 59 1 0. -4.66802 2.88500 7.55302
60 60 1 0. -2.33401 4.32749 8.44453
61 61 1 0. -7.00203 -1.44250 6.66150
62 62 1 0. -4.66802 -2.88500 7.55302
63 63 1 0. -2.33401 -4.32749 8.44453
64 64 1 0. -8.44453 -2.33401 4.32749
65 65 1 0. -7.55302 -4.66802 2.88500
66 66 1 0. -6.66150 -7.00203 1.44250
67 67 1 0. 2.88500 9.33604 0.00000
68 68 1 0. 0.00000 9.33604 0.00000
69 69 1 0. -2.88500 9.33604 0.00000
70 70 1 0. 4.32749 8.44453 2.33401
71 71 1 0. 2.88500 7.55302 4.66802
72 72 1 0. 1.44250 6.66150 7.00203
73 73 1 0. 4.32749 8.44453 -2.33401
74 74 1 0. 2.88500 7.55302 -4.66802
75 75 1 0. 1.44250 6.66150 -7.00203
76 76 1 0. -4.32749 -8.44453 2.33401
77 77 1 0. -2.88500 -7.55302 4.66802
78 78 1 0. -1.44250 -6.66150 7.00203
79 79 1 0. -2.88500 -9.33604 0.00000
80 80 1 0. 0.00000 -9.33604 0.00000
81 81 1 0. 2.88500 -9.33604 0.00000
82 82 1 0. -4.32749 -8.44453 -2.33401
83 83 1 0. -2.88500 -7.55302 -4.66802
84 84 1 0. -1.44250 -6.66150 -7.00203
85 85 1 0. 4.32749 -8.44453 2.33401
86 86 1 0. 2.88500 -7.55302 4.66802
87 87 1 0. 1.44250 -6.66150 7.00203
88 88 1 0. 4.32749 -8.44453 -2.33401
89 89 1 0. 2.88500 -7.55302 -4.66802
90 90 1 0. 1.44250 -6.66150 -7.00203
91 91 1 0. -4.32749 8.44453 2.33401
92 92 1 0. -2.88500 7.55302 4.66802
93 93 1 0. -1.44250 6.66150 7.00203
94 94 1 0. -4.32749 8.44453 -2.33401
95 95 1 0. -2.88500 7.55302 -4.66802
96 96 1 0. -1.44250 6.66150 -7.00203
97 97 1 0. 0.00000 2.88500 -9.33604
98 98 1 0. 0.00000 0.00000 -9.33604
99 99 1 0. 0.00000 -2.88500 -9.33604
100 100 1 0. 0.00000 -2.88500 9.33604
101 101 1 0. 0.00000 0.00000 9.33604
102 102 1 0. 0.00000 2.88500 9.33604
103 103 1 0. 8.44453 2.33401 1.44250
104 104 1 0. 8.44453 2.33401 -1.44250
105 105 1 0. 7.55302 4.66802 0.00000
106 106 1 0. 6.11052 3.77651 5.21901
107 107 1 0. 5.21901 6.11052 3.77651
108 108 1 0. 3.77651 5.21901 6.11052
109 109 1 0. 4.66802 0.00000 7.55302
110 110 1 0. 2.33401 1.44250 8.44453
111 111 1 0. 2.33401 -1.44250 8.44453
112 112 1 0. 6.11052 -3.77651 5.21901
113 113 1 0. 3.77651 -5.21901 6.11052
114 114 1 0. 5.21901 -6.11052 3.77651
115 115 1 0. 8.44453 -2.33401 1.44250
116 116 1 0. 8.44453 -2.33401 -1.44250
117 117 1 0. 7.55302 -4.66802 0.00000
118 118 1 0. -6.11052 3.77651 -5.21901
119 119 1 0. -5.21901 6.11052 -3.77651
120 120 1 0. -3.77651 5.21901 -6.11052
121 121 1 0. -8.44453 2.33401 -1.44250
122 122 1 0. -7.55302 4.66802 0.00000
123 123 1 0. -8.44453 2.33401 1.44250
124 124 1 0. -8.44453 -2.33401 -1.44250
125 125 1 0. -8.44453 -2.33401 1.44250
126 126 1 0. -7.55302 -4.66802 0.00000
127 127 1 0. -6.11052 -3.77651 -5.21901
128 128 1 0. -3.77651 -5.21901 -6.11052
129 129 1 0. -5.21901 -6.11052 -3.77651
130 130 1 0. -4.66802 0.00000 -7.55302
131 131 1 0. -2.33401 1.44250 -8.44453
132 132 1 0. -2.33401 -1.44250 -8.44453
133 133 1 0. 6.11052 3.77651 -5.21901
134 134 1 0. 5.21901 6.11052 -3.77651
135 135 1 0. 3.77651 5.21901 -6.11052
136 136 1 0. 4.66802 0.00000 -7.55302
137 137 1 0. 2.33401 1.44250 -8.44453
138 138 1 0. 2.33401 -1.44250 -8.44453
139 139 1 0. 6.11052 -3.77651 -5.21901
140 140 1 0. 5.21901 -6.11052 -3.77651
141 141 1 0. 3.77651 -5.21901 -6.11052
142 142 1 0. -6.11052 -3.77651 5.21901
143 143 1 0. -3.77651 -5.21901 6.11052
144 144 1 0. -5.21901 -6.11052 3.77651
145 145 1 0. -4.66802 0.00000 7.55302
146 146 1 0. -2.33401 1.44250 8.44453
147 147 1 0. -2.33401 -1.44250 8.44453
148 148 1 0. -6.11052 3.77651 5.21901
149 149 1 0. -5.21901 6.11052 3.77651
150 150 1 0. -3.77651 5.21901 6.11052
151 151 1 0. 1.44250 8.44453 -2.33401
152 152 1 0. -1.44250 8.44453 -2.33401
153 153 1 0. 0.00000 7.55302 -4.66802
154 154 1 0. 1.44250 8.44453 2.33401
155 155 1 0. -1.44250 8.44453 2.33401
156 156 1 0. 0.00000 7.55302 4.66802
157 157 1 0. -1.44250 -8.44453 2.33401
158 158 1 0. 0.00000 -7.55302 4.66802
159 159 1 0. 1.44250 -8.44453 2.33401
160 160 1 0. -1.44250 -8.44453 -2.33401
161 161 1 0. 1.44250 -8.44453 -2.33401
162 162 1 0. 0.00000 -7.55302 -4.66802
163 163 1 0. 11.67005 0.00000 7.21249
164 164 1 0. 11.67005 0.00000 -7.21249
165 165 1 0. 7.21249 11.67005 0.00000
166 166 1 0. -7.21249 11.67005 0.00000
167 167 1 0. 0.00000 7.21249 11.67005
168 168 1 0. 0.00000 -7.21249 11.67005
169 169 1 0. 7.21249 -11.67005 0.00000
170 170 1 0. 0.00000 7.21249 -11.67005
171 171 1 0. -11.67005 0.00000 7.21249
172 172 1 0. 0.00000 -7.21249 -11.67005
173 173 1 0. -11.67005 0.00000 -7.21249
174 174 1 0. -7.21249 -11.67005 0.00000
175 175 1 0. 11.67005 0.00000 4.32749
176 176 1 0. 11.67005 0.00000 1.44250
177 177 1 0. 11.67005 0.00000 -1.44250
178 178 1 0. 11.67005 0.00000 -4.32749
179 179 1 0. 10.77854 2.33401 5.76999
180 180 1 0. 9.88703 4.66802 4.32749
181 181 1 0. 8.99551 7.00203 2.88500
182 182 1 0. 8.10400 9.33604 1.44250
183 183 1 0. 9.33604 1.44250 8.10400
184 184 1 0. 7.00203 2.88500 8.99551
185 185 1 0. 4.66802 4.32749 9.88703
186 186 1 0. 2.33401 5.76999 10.77854
187 187 1 0. 9.33604 -1.44250 8.10400
188 188 1 0. 7.00203 -2.88500 8.99551
189 189 1 0. 4.66802 -4.32749 9.88703
190 190 1 0. 2.33401 -5.76999 10.77854
191 191 1 0. 10.77854 -2.33401 5.76999
192 192 1 0. 9.88703 -4.66802 4.32749
193 193 1 0. 8.99551 -7.00203 2.88500
194 194 1 0. 8.10400 -9.33604 1.44250
195 195 1 0. -10.77854 2.33401 -5.76999
196 196 1 0. -9.88703 4.66802 -4.32749
197 197 1 0. -8.99551 7.00203 -2.88500
198 198 1 0. -8.10400 9.33604 -1.44250
199 199 1 0. -9.33604 1.44250 -8.10400
200 200 1 0. -7.00203 2.88500 -8.99551
201 201 1 0. -4.66802 4.32749 -9.88703
202 202 1 0. -2.33401 5.76999 -10.77854
203 203 1 0. -11.67005 0.00000 -4.32749
204 204 1 0. -11.67005 0.00000 -1.44250
205 205 1 0. -11.67005 0.00000 1.44250
206 206 1 0. -11.67005 0.00000 4.32749
207 207 1 0. -9.33604 -1.44250 -8.10400
208 208 1 0. -7.00203 -2.88500 -8.99551
209 209 1 0. -4.66802 -4.32749 -9.88703
210 210 1 0. -2.33401 -5.76999 -10.77854
211 211 1 0. -10.77854 -2.33401 -5.76999
212 212 1 0. -9.88703 -4.66802 -4.32749
213 213 1 0. -8.99551 -7.00203 -2.88500
214 214 1 0. -8.10400 -9.33604 -1.44250
215 215 1 0. 10.77854 2.33401 -5.76999
216 216 1 0. 9.88703 4.66802 -4.32749
217 217 1 0. 8.99551 7.00203 -2.88500
218 218 1 0. 8.10400 9.33604 -1.44250
219 219 1 0. 10.77854 -2.33401 -5.76999
220 220 1 0. 9.88703 -4.66802 -4.32749
221 221 1 0. 8.99551 -7.00203 -2.88500
222 222 1 0. 8.10400 -9.33604 -1.44250
223 223 1 0. 9.33604 1.44250 -8.10400
224 224 1 0. 7.00203 2.88500 -8.99551
225 225 1 0. 4.66802 4.32749 -9.88703
226 226 1 0. 2.33401 5.76999 -10.77854
227 227 1 0. 9.33604 -1.44250 -8.10400
228 228 1 0. 7.00203 -2.88500 -8.99551
229 229 1 0. 4.66802 -4.32749 -9.88703
230 230 1 0. 2.33401 -5.76999 -10.77854
231 231 1 0. -10.77854 2.33401 5.76999
232 232 1 0. -9.88703 4.66802 4.32749
233 233 1 0. -8.99551 7.00203 2.88500
234 234 1 0. -8.10400 9.33604 1.44250
235 235 1 0. -9.33604 1.44250 8.10400
236 236 1 0. -7.00203 2.88500 8.99551
237 237 1 0. -4.66802 4.32749 9.88703
238 238 1 0. -2.33401 5.76999 10.77854
239 239 1 0. -9.33604 -1.44250 8.10400
240 240 1 0. -7.00203 -2.88500 8.99551
241 241 1 0. -4.66802 -4.32749 9.88703
242 242 1 0. -2.33401 -5.76999 10.77854
243 243 1 0. -10.77854 -2.33401 5.76999
244 244 1 0. -9.88703 -4.66802 4.32749
245 245 1 0. -8.99551 -7.00203 2.88500
246 246 1 0. -8.10400 -9.33604 1.44250
247 247 1 0. 4.32749 11.67005 0.00000
248 248 1 0. 1.44250 11.67005 0.00000
249 249 1 0. -1.44250 11.67005 0.00000
250 250 1 0. -4.32749 11.67005 0.00000
251 251 1 0. 5.76999 10.77854 2.33401
252 252 1 0. 4.32749 9.88703 4.66802
253 253 1 0. 2.88500 8.99551 7.00203
254 254 1 0. 1.44250 8.10400 9.33604
255 255 1 0. 5.76999 10.77854 -2.33401
256 256 1 0. 4.32749 9.88703 -4.66802
257 257 1 0. 2.88500 8.99551 -7.00203
258 258 1 0. 1.44250 8.10400 -9.33604
259 259 1 0. -5.76999 -10.77854 2.33401
260 260 1 0. -4.32749 -9.88703 4.66802
261 261 1 0. -2.88500 -8.99551 7.00203
262 262 1 0. -1.44250 -8.10400 9.33604
263 263 1 0. -4.32749 -11.67005 0.00000
264 264 1 0. -1.44250 -11.67005 0.00000
265 265 1 0. 1.44250 -11.67005 0.00000
266 266 1 0. 4.32749 -11.67005 0.00000
267 267 1 0. -5.76999 -10.77854 -2.33401
268 268 1 0. -4.32749 -9.88703 -4.66802
269 269 1 0. -2.88500 -8.99551 -7.00203
270 270 1 0. -1.44250 -8.10400 -9.33604
271 271 1 0. 5.76999 -10.77854 2.33401
272 272 1 0. 4.32749 -9.88703 4.66802
273 273 1 0. 2.88500 -8.99551 7.00203
274 274 1 0. 1.44250 -8.10400 9.33604
275 275 1 0. 5.76999 -10.77854 -2.33401
276 276 1 0. 4.32749 -9.88703 -4.66802
277 277 1 0. 2.88500 -8.99551 -7.00203
278 278 1 0. 1.44250 -8.10400 -9.33604
279 279 1 0. -5.76999 10.77854 2.33401
280 280 1 0. -4.32749 9.88703 4.66802
281 281 1 0. -2.88500 8.99551 7.00203
282 282 1 0. -1.44250 8.10400 9.33604
283 283 1 0. -5.76999 10.77854 -2.33401
284 284 1 0. -4.32749 9.88703 -4.66802
285 285 1 0. -2.88500 8.99551 -7.00203
286 286 1 0. -1.44250 8.10400 -9.33604
287 287 1 0. 0.00000 4.32749 -11.67005
288 288 1 0. 0.00000 1.44250 -11.67005
289 289 1 0. 0.00000 -1.44250 -11.67005
290 290 1 0. 0.00000 -4.32749 -11.67005
291 291 1 0. 0.00000 -4.32749 11.67005
292 292 1 0. 0.00000 -1.44250 11.67005
293 293 1 0. 0.00000 1.44250 11.67005
294 294 1 0. 0.00000 4.32749 11.67005
295 295 1 0. 10.77854 2.33401 2.88500
296 296 1 0. 10.77854 2.33401 0.00000
297 297 1 0. 9.88703 4.66802 1.44250
298 298 1 0. 10.77854 2.33401 -2.88500
299 299 1 0. 9.88703 4.66802 -1.44250
300 300 1 0. 8.99551 7.00203 0.00000
301 301 1 0. 8.44453 3.77651 6.66150
302 302 1 0. 7.55302 6.11052 5.21901
303 303 1 0. 6.11052 5.21901 7.55302
304 304 1 0. 6.66150 8.44453 3.77651
305 305 1 0. 5.21901 7.55302 6.11052
306 306 1 0. 3.77651 6.66150 8.44453
307 307 1 0. 7.00203 0.00000 8.99551
308 308 1 0. 4.66802 1.44250 9.88703
309 309 1 0. 4.66802 -1.44250 9.88703
310 310 1 0. 2.33401 2.88500 10.77854
311 311 1 0. 2.33401 0.00000 10.77854
312 312 1 0. 2.33401 -2.88500 10.77854
313 313 1 0. 8.44453 -3.77651 6.66150
314 314 1 0. 6.11052 -5.21901 7.55302
315 315 1 0. 7.55302 -6.11052 5.21901
316 316 1 0. 3.77651 -6.66150 8.44453
317 317 1 0. 5.21901 -7.55302 6.11052
318 318 1 0. 6.66150 -8.44453 3.77651
319 319 1 0. 10.77854 -2.33401 2.88500
320 320 1 0. 10.77854 -2.33401 0.00000
321 321 1 0. 9.88703 -4.66802 1.44250
322 322 1 0. 10.77854 -2.33401 -2.88500
323 323 1 0. 9.88703 -4.66802 -1.44250
324 324 1 0. 8.99551 -7.00203 0.00000
325 325 1 0. -8.44453 3.77651 -6.66150
326 326 1 0. -7.55302 6.11052 -5.21901
327 327 1 0. -6.11052 5.21901 -7.55302
328 328 1 0. -6.66150 8.44453 -3.77651
329 329 1 0. -5.21901 7.55302 -6.11052
330 330 1 0. -3.77651 6.66150 -8.44453
331 331 1 0. -10.77854 2.33401 -2.88500
332 332 1 0. -9.88703 4.66802 -1.44250
333 333 1 0. -10.77854 2.33401 0.00000
334 334 1 0. -8.99551 7.00203 0.00000
335 335 1 0. -9.88703 4.66802 1.44250
336 336 1 0. -10.77854 2.33401 2.88500
337 337 1 0. -10.77854 -2.33401 -2.88500
338 338 1 0. -10.77854 -2.33401 0.00000
339 339 1 0. -9.88703 -4.66802 -1.44250
340 340 1 0. -10.77854 -2.33401 2.88500
341 341 1 0. -9.88703 -4.66802 1.44250
342 342 1 0. -8.99551 -7.00203 0.00000
343 343 1 0. -8.44453 -3.77651 -6.66150
344 344 1 0. -6.11052 -5.21901 -7.55302
345 345 1 0. -7.55302 -6.11052 -5.21901
346 346 1 0. -3.77651 -6.66150 -8.44453
347 347 1 0. -5.21901 -7.55302 -6.11052
348 348 1 0. -6.66150 -8.44453 -3.77651
349 349 1 0. -7.00203 0.00000 -8.99551
350 350 1 0. -4.66802 1.44250 -9.88703
351 351 1 0. -4.66802 -1.44250 -9.88703
352 352 1 0. -2.33401 2.88500 -10.77854
353 353 1 0. -2.33401 0.00000 -10.77854
354 354 1 0. -2.33401 -2.88500 -10.77854
355 355 1 0. 8.44453 3.77651 -6.66150
356 356 1 0. 7.55302 6.11052 -5.21901
357 357 1 0. 6.11052 5.21901 -7.55302
358 358 1 0. 6.66150 8.44453 -3.77651
359 359 1 0. 5.21901 7.55302 -6.11052
360 360 1 0. 3.77651 6.66150 -8.44453
361 361 1 0. 7.00203 0.00000 -8.99551
362 362 1 0. 4.66802 1.44250 -9.88703
363 363 1 0. 4.66802 -1.44250 -9.88703
364 364 1 0. 2.33401 2.88500 -10.77854
365 365 1 0. 2.33401 0.00000 -10.77854
366 366 1 0. 2.33401 -2.88500 -10.77854
367 367 1 0. 8.44453 -3.77651 -6.66150
368 368 1 0. 7.55302 -6.11052 -5.21901
369 369 1 0. 6.11052 -5.21901 -7.55302
370 370 1 0. 6.66150 -8.44453 -3.77651
371 371 1 0. 5.21901 -7.55302 -6.11052
372 372 1 0. 3.77651 -6.66150 -8.44453
373 373 1 0. -8.44453 -3.77651 6.66150
374 374 1 0. -6.11052 -5.21901 7.55302
375 375 1 0. -7.55302 -6.11052 5.21901
376 376 1 0. -3.77651 -6.66150 8.44453
377 377 1 0. -5.21901 -7.55302 6.11052
378 378 1 0. -6.66150 -8.44453 3.77651
379 379 1 0. -7.00203 0.00000 8.99551
380 380 1 0. -4.66802 1.44250 9.88703
381 381 1 0. -4.66802 -1.44250 9.88703
382 382 1 0. -2.33401 2.88500 10.77854
383 383 1 0. -2.33401 0.00000 10.77854
384 384 1 0. -2.33401 -2.88500 10.77854
385 385 1 0. -8.44453 3.77651 6.66150
386 386 1 0. -7.55302 6.11052 5.21901
387 387 1 0. -6.11052 5.21901 7.55302
388 388 1 0. -6.66150 8.44453 3.77651
389 389 1 0. -5.21901 7.55302 6.11052
390 390 1 0. -3.77651 6.66150 8.44453
391 391 1 0. 2.88500 10.77854 -2.33401
392 392 1 0. 0.00000 10.77854 -2.33401
393 393 1 0. 1.44250 9.88703 -4.66802
394 394 1 0. -2.88500 10.77854 -2.33401
395 395 1 0. -1.44250 9.88703 -4.66802
396 396 1 0. 0.00000 8.99551 -7.00203
397 397 1 0. 2.88500 10.77854 2.33401
398 398 1 0. 0.00000 10.77854 2.33401
399 399 1 0. 1.44250 9.88703 4.66802
400 400 1 0. -2.88500 10.77854 2.33401
401 401 1 0. -1.44250 9.88703 4.66802
402 402 1 0. 0.00000 8.99551 7.00203
403 403 1 0. -2.88500 -10.77854 2.33401
404 404 1 0. -1.44250 -9.88703 4.66802
405 405 1 0. 0.00000 -10.77854 2.33401
406 406 1 0. 0.00000 -8.99551 7.00203
407 407 1 0. 1.44250 -9.88703 4.66802
408 408 1 0. 2.88500 -10.77854 2.33401
409 409 1 0. -2.88500 -10.77854 -2.33401
410 410 1 0. 0.00000 -10.77854 -2.33401
411 411 1 0. -1.44250 -9.88703 -4.66802
412 412 1 0. 2.88500 -10.77854 -2.33401
413 413 1 0. 1.44250 -9.88703 -4.66802
414 414 1 0. 0.00000 -8.99551 -7.00203
415 415 1 0. 14.00406 0.00000 8.65499
416 416 1 0. 14.00406 0.00000 -8.65499
417 417 1 0. 8.65499 14.00406 0.00000
418 418 1 0. -8.65499 14.00406 0.00000
419 419 1 0. 0.00000 8.65499 14.00406
420 420 1 0. 0.00000 -8.65499 14.00406
421 421 1 0. 8.65499 -14.00406 0.00000
422 422 1 0. 0.00000 8.65499 -14.00406
423 423 1 0. -14.00406 0.00000 8.65499
424 424 1 0. 0.00000 -8.65499 -14.00406
425 425 1 0. -14.00406 0.00000 -8.65499
426 426 1 0. -8.65499 -14.00406 0.00000
427 427 1 0. 14.00406 0.00000 5.76999
428 428 1 0. 14.00406 0.00000 2.88500
429 429 1 0. 14.00406 0.00000 0.00000
430 430 1 0. 14.00406 0.00000 -2.88500
431 431 1 0. 14.00406 0.00000 -5.76999
432 432 1 0. 13.11255 2.33401 7.21249
433 433 1 0. 12.22104 4.66802 5.76999
434 434 1 0. 11.32953 7.00203 4.32749
435 435 1 0. 10.43801 9.33604 2.88500
436 436 1 0. 9.54650 11.67005 1.44250
437 437 1 0. 11.67005 1.44250 9.54650
438 438 1 0. 9.33604 2.88500 10.43801
439 439 1 0. 7.00203 4.32749 11.32953
440 440 1 0. 4.66802 5.76999 12.22104
441 441 1 0. 2.33401 7.21249 13.11255
442 442 1 0. 11.67005 -1.44250 9.54650
443 443 1 0. 9.33604 -2.88500 10.43801
444 444 1 0. 7.00203 -4.32749 11.32953
445 445 1 0. 4.66802 -5.76999 12.22104
446 446 1 0. 2.33401 -7.21249 13.11255
447 447 1 0. 13.11255 -2.33401 7.21249
448 448 1 0. 12.22104 -4.66802 5.76999
449 449 1 0. 11.32953 -7.00203 4.32749
450 450 1 0. 10.43801 -9.33604 2.88500
451 451 1 0. 9.54650 -11.67005 1.44250
452 452 1 0. -13.11255 2.33401 -7.21249
453 453 1 0. -12.22104 4.66802 -5.76999
454 454 1 0. -11.32953 7.00203 -4.32749
455 455 1 0. -10.43801 9.33604 -2.88500
456 456 1 0. -9.54650 11.67005 -1.44250
457 457 1 0. -11.67005 1.44250 -9.54650
458 458 1 0. -9.33604 2.88500 -10.43801
459 459 1 0. -7.00203 4.32749 -11.32953
460 460 1 0. -4.66802 5.76999 -12.22104
461 461 1 0. -2.33401 7.21249 -13.11255
462 462 1 0. -14.00406 0.00000 -5.76999
463 463 1 0. -14.00406 0.00000 -2.88500
464 464 1 0. -14.00406 0.00000 0.00000
465 465 1 0. -14.00406 0.00000 2.88500
466 466 1 0. -14.00406 0.00000 5.76999
467 467 1 0. -11.67005 -1.44250 -9.54650
468 468 1 0. -9.33604 -2.88500 -10.43801
469 469 1 0. -7.00203 -4.32749 -11.32953
470 470 1 0. -4.66802 -5.76999 -12.22104
471 471 1 0. -2.33401 -7.21249 -13.11255
472 472 1 0. -13.11255 -2.33401 -7.21249
473 473 1 0. -12.22104 -4.66802 -5.76999
474 474 1 0. -11.32953 -7.00203 -4.32749
475 475 1 0. -10.43801 -9.33604 -2.88500
476 476 1 0. -9.54650 -11.67005 -1.44250
477 477 1 0. 13.11255 2.33401 -7.21249
478 478 1 0. 12.22104 4.66802 -5.76999
479 479 1 0. 11.32953 7.00203 -4.32749
480 480 1 0. 10.43801 9.33604 -2.88500
481 481 1 0. 9.54650 11.67005 -1.44250
482 482 1 0. 13.11255 -2.33401 -7.21249
483 483 1 0. 12.22104 -4.66802 -5.76999
484 484 1 0. 11.32953 -7.00203 -4.32749
485 485 1 0. 10.43801 -9.33604 -2.88500
486 486 1 0. 9.54650 -11.67005 -1.44250
487 487 1 0. 11.67005 1.44250 -9.54650
488 488 1 0. 9.33604 2.88500 -10.43801
489 489 1 0. 7.00203 4.32749 -11.32953
490 490 1 0. 4.66802 5.76999 -12.22104
491 491 1 0. 2.33401 7.21249 -13.11255
492 492 1 0. 11.67005 -1.44250 -9.54650
493 493 1 0. 9.33604 -2.88500 -10.43801
494 494 1 0. 7.00203 -4.32749 -11.32953
495 495 1 0. 4.66802 -5.76999 -12.22104
496 496 1 0. 2.33401 -7.21249 -13.11255
497 497 1 0. -13.11255 2.33401 7.21249
498 498 1 0. -12.22104 4.66802 5.76999
499 499 1 0. -11.32953 7.00203 4.32749
500 500 1 0. -10.43801 9.33604 2.88500
501 501 1 0. -9.54650 11.67005 1.44250
502 502 1 0. -11.67005 1.44250 9.54650
503 503 1 0. -9.33604 2.88500 10.43801
504 504 1 0. -7.00203 4.32749 11.32953
505 505 1 0. -4.66802 5.76999 12.22104
506 506 1 0. -2.33401 7.21249 13.11255
507 507 1 0. -11.67005 -1.44250 9.54650
508 508 1 0. -9.33604 -2.88500 10.43801
509 509 1 0. -7.00203 -4.32749 11.32953
510 510 1 0. -4.66802 -5.76999 12.22104
511 511 1 0. -2.33401 -7.21249 13.11255
512 512 1 0. -13.11255 -2.33401 7.21249
513 513 1 0. -12.22104 -4.66802 5.76999
514 514 1 0. -11.32953 -7.00203 4.32749
515 515 1 0. -10.43801 -9.33604 2.88500
516 516 1 0. -9.54650 -11.67005 1.44250
517 517 1 0. 5.76999 14.00406 0.00000
518 518 1 0. 2.88500 14.00406 0.00000
519 519 1 0. 0.00000 14.00406 0.00000
520 520 1 0. -2.88500 14.00406 0.00000
521 521 1 0. -5.76999 14.00406 0.00000
522 522 1 0. 7.21249 13.11255 2.33401
523 523 1 0. 5.76999 12.22104 4.66802
524 524 1 0. 4.32749 11.32953 7.00203
525 525 1 0. 2.88500 10.43801 9.33604
526 526 1 0. 1.44250 9.54650 11.67005
527 527 1 0. 7.21249 13.11255 -2.33401
528 528 1 0. 5.76999 12.22104 -4.66802
529 529 1 0. 4.32749 11.32953 -7.00203
530 530 1 0. 2.88500 10.43801 -9.33604
531 531 1 0. 1.44250 9.54650 -11.67005
532 532 1 0. -7.21249 -13.11255 2.33401
533 533 1 0. -5.76999 -12.22104 4.66802
534 534 1 0. -4.32749 -11.32953 7.00203
535 535 1 0. -2.88500 -10.43801 9.33604
536 536 1 0. -1.44250 -9.54650 11.67005
537 537 1 0. -5.76999 -14.00406 0.00000
538 538 1 0. -2.88500 -14.00406 0.00000
539 539 1 0. 0.00000 -14.00406 0.00000
540 540 1 0. 2.88500 -14.00406 0.00000
541 541 1 0. 5.76999 -14.00406 0.00000
542 542 1 0. -7.21249 -13.11255 -2.33401
543 543 1 0. -5.76999 -12.22104 -4.66802
544 544 1 0. -4.32749 -11.32953 -7.00203
545 545 1 0. -2.88500 -10.43801 -9.33604
546 546 1 0. -1.44250 -9.54650 -11.67005
547 547 1 0. 7.21249 -13.11255 2.33401
548 548 1 0. 5.76999 -12.22104 4.66802
549 549 1 0. 4.32749 -11.32953 7.00203
550 550 1 0. 2.88500 -10.43801 9.33604
551 551 1 0. 1.44250 -9.54650 11.67005
552 552 1 0. 7.21249 -13.11255 -2.33401
553 553 1 0. 5.76999 -12.22104 -4.66802
554 554 1 0. 4.32749 -11.32953 -7.00203
555 555 1 0. 2.88500 -10.43801 -9.33604
556 556 1 0. 1.44250 -9.54650 -11.67005
557 557 1 0. -7.21249 13.11255 2.33401
558 558 1 0. -5.76999 12.22104 4.66802
559 559 1 0. -4.32749 11.32953 7.00203
560 560 1 0. -2.88500 10.43801 9.33604
561 561 1 0. -1.44250 9.54650 11.67005
562 562 1 0. -7.21249 13.11255 -2.33401
563 563 1 0. -5.76999 12.22104 -4.66802
564 564 1 0. -4.32749 11.32953 -7.00203
565 565 1 0. -2.88500 10.43801 -9.33604
566 566 1 0. -1.44250 9.54650 -11.67005
567 567 1 0. 0.00000 5.76999 -14.00406
568 568 1 0. 0.00000 2.88500 -14.00406
569 569 1 0. 0.00000 0.00000 -14.00406
570 570 1 0. 0.00000 -2.88500 -14.00406
571 571 1 0. 0.00000 -5.76999 -14.00406
572 572 1 0. 0.00000 -5.76999 14.00406
573 573 1 0. 0.00000 -2.88500 14.00406
574 574 1 0. 0.00000 0.00000 14.00406
575 575 1 0. 0.00000 2.88500 14.00406
576 576 1 0. 0.00000 5.76999 14.00406
577 577 1 0. 13.11255 2.33401 4.32749
578 578 1 0. 13.11255 2.33401 1.44250
579 579 1 0. 12.22104 4.66802 2.88500
580 580 1 0. 13.11255 2.33401 -1.44250
581 581 1 0. 12.22104 4.66802 0.00000
582 582 1 0. 11.32953 7.00203 1.44250
583 583 1 0. 13.11255 2.33401 -4.32749
584 584 1 0. 12.22104 4.66802 -2.88500
585 585 1 0. 11.32953 7.00203 -1.44250
586 586 1 0. 10.43801 9.33604 0.00000
587 587 1 0. 10.77854 3.77651 8.10400
588 588 1 0. 9.88703 6.11052 6.66150
589 589 1 0. 8.44453 5.21901 8.99551
590 590 1 0. 8.99551 8.44453 5.21901
591 591 1 0. 7.55302 7.55302 7.55302
592 592 1 0. 6.11052 6.66150 9.88703
593 593 1 0. 8.10400 10.77854 3.77651
594 594 1 0. 6.66150 9.88703 6.11052
595 595 1 0. 5.21901 8.99551 8.44453
596 596 1 0. 3.77651 8.10400 10.77854
597 597 1 0. 9.33604 0.00000 10.43801
598 598 1 0. 7.00203 1.44250 11.32953
599 599 1 0. 7.00203 -1.44250 11.32953
600 600 1 0. 4.66802 2.88500 12.22104
601 601 1 0. 4.66802 0.00000 12.22104
602 602 1 0. 4.66802 -2.88500 12.22104
603 603 1 0. 2.33401 4.32749 13.11255
604 604 1 0. 2.33401 1.44250 13.11255
605 605 1 0. 2.33401 -1.44250 13.11255
606 606 1 0. 2.33401 -4.32749 13.11255
607 607 1 0. 10.77854 -3.77651 8.10400
608 608 1 0. 8.44453 -5.21901 8.99551
609 609 1 0. 9.88703 -6.11052 6.66150
610 610 1 0. 6.11052 -6.66150 9.88703
611 611 1 0. 7.55302 -7.55302 7.55302
612 612 1 0. 8.99551 -8.44453 5.21901
613 613 1 0. 3.77651 -8.10400 10.77854
614 614 1 0. 5.21901 -8.99551 8.44453
615 615 1 0. 6.66150 -9.88703 6.11052
616 616 1 0. 8.10400 -10.77854 3.77651
617 617 1 0. 13.11255 -2.33401 4.32749
618 618 1 0. 13.11255 -2.33401 1.44250
619 619 1 0. 12.22104 -4.66802 2.88500
620 620 1 0. 13.11255 -2.33401 -1.44250
621 621 1 0. 12.22104 -4.66802 0.00000
622 622 1 0. 11.32953 -7.00203 1.44250
623 623 1 0. 13.11255 -2.33401 -4.32749
624 624 1 0. 12.22104 -4.66802 -2.88500
625 625 1 0. 11.32953 -7.00203 -1.44250
626 626 1 0. 10.43801 -9.33604 0.00000
627 627 1 0. -10.77854 3.77651 -8.10400
628 628 1 0. -9.88703 6.11052 -6.66150
629 629 1 0. -8.44453 5.21901 -8.99551
630 630 1 0. -8.99551 8.44453 -5.21901
631 631 1 0. -7.55302 7.55302 -7.55302
632 632 1 0. -6.11052 6.66150 -9.88703
633 633 1 0. -8.10400 10.77854 -3.77651
634 634 1 0. -6.66150 9.88703 -6.11052
635 635 1 0. -5.21901 8.99551 -8.44453
636 636 1 0. -3.77651 8.10400 -10.77854
637 637 1 0. -13.11255 2.33401 -4.32749
638 638 1 0. -12.22104 4.66802 -2.88500
639 639 1 0. -13.11255 2.33401 -1.44250
640 640 1 0. -11.32953 7.00203 -1.44250
641 641 1 0. -12.22104 4.66802 0.00000
642 642 1 0. -13.11255 2.33401 1.44250
643 643 1 0. -10.43801 9.33604 0.00000
644 644 1 0. -11.32953 7.00203 1.44250
645 645 1 0. -12.22104 4.66802 2.88500
646 646 1 0. -13.11255 2.33401 4.32749
647 647 1 0. -13.11255 -2.33401 -4.32749
648 648 1 0. -13.11255 -2.33401 -1.44250
649 649 1 0. -12.22104 -4.66802 -2.88500
650 650 1 0. -13.11255 -2.33401 1.44250
651 651 1 0. -12.22104 -4.66802 0.00000
652 652 1 0. -11.32953 -7.00203 -1.44250
653 653 1 0. -13.11255 -2.33401 4.32749
654 654 1 0. -12.22104 -4.66802 2.88500
655 655 1 0. -11.32953 -7.00203 1.44250
656 656 1 0. -10.43801 -9.33604 0.00000
657 657 1 0. -10.77854 -3.77651 -8.10400
658 658 1 0. -8.44453 -5.21901 -8.99551
659 659 1 0. -9.88703 -6.11052 -6.66150
660 660 1 0. -6.11052 -6.66150 -9.88703
661 661 1 0. -7.55302 -7.55302 -7.55302
662 662 1 0. -8.99551 -8.44453 -5.21901
663 663 1 0. -3.77651 -8.10400 -10.77854
664 664 1 0. -5.21901 -8.99551 -8.44453
665 665 1 0. -6.66150 -9.88703 -6.11052
666 666 1 0. -8.10400 -10.77854 -3.77651
667 667 1 0. -9.33604 0.00000 -10.43801
668 668 1 0. -7.00203 1.44250 -11.32953
669 669 1 0. -7.00203 -1.44250 -11.32953
670 670 1 0. -4.66802 2.88500 -12.22104
671 671 1 0. -4.66802 0.00000 -12.22104
672 672 1 0. -4.66802 -2.88500 -12.22104
673 673 1 0. -2.33401 4.32749 -13.11255
674 674 1 0. -2.33401 1.44250 -13.11255
675 675 1 0. -2.33401 -1.44250 -13.11255
676 676 1 0. -2.33401 -4.32749 -13.11255
677 677 1 0. 10.77854 3.77651 -8.10400
678 678 1 0. 9.88703 6.11052 -6.66150
679 679 1 0. 8.44453 5.21901 -8.99551
680 680 1 0. 8.99551 8.44453 -5.21901
681 681 1 0. 7.55302 7.55302 -7.55302
682 682 1 0. 6.11052 6.66150 -9.88703
683 683 1 0. 8.10400 10.77854 -3.77651
684 684 1 0. 6.66150 9.88703 -6.11052
685 685 1 0. 5.21901 8.99551 -8.44453
686 686 1 0. 3.77651 8.10400 -10.77854
687 687 1 0. 9.33604 0.00000 -10.43801
688 688 1 0. 7.00203 1.44250 -11.32953
689 689 1 0. 7.00203 -1.44250 -11.32953
690 690 1 0. 4.66802 2.88500 -12.22104
691 691 1 0. 4.66802 0.00000 -12.22104
692 692 1 0. 4.66802 -2.88500 -12.22104
693 693 1 0. 2.33401 4.32749 -13.11255
694 694 1 0. 2.33401 1.44250 -13.11255
695 695 1 0. 2.33401 -1.44250 -13.11255
696 696 1 0. 2.33401 -4.32749 -13.11255
697 697 1 0. 10.77854 -3.77651 -8.10400
698 698 1 0. 9.88703 -6.11052 -6.66150
699 699 1 0. 8.44453 -5.21901 -8.99551
700 700 1 0. 8.99551 -8.44453 -5.21901
701 701 1 0. 7.55302 -7.55302 -7.55302
702 702 1 0. 6.11052 -6.66150 -9.88703
703 703 1 0. 8.10400 -10.77854 -3.77651
704 704 1 0. 6.66150 -9.88703 -6.11052
705 705 1 0. 5.21901 -8.99551 -8.44453
706 706 1 0. 3.77651 -8.10400 -10.77854
707 707 1 0. -10.77854 -3.77651 8.10400
708 708 1 0. -8.44453 -5.21901 8.99551
709 709 1 0. -9.88703 -6.11052 6.66150
710 710 1 0. -6.11052 -6.66150 9.88703
711 711 1 0. -7.55302 -7.55302 7.55302
712 712 1 0. -8.99551 -8.44453 5.21901
713 713 1 0. -3.77651 -8.10400 10.77854
714 714 1 0. -5.21901 -8.99551 8.44453
715 715 1 0. -6.66150 -9.88703 6.11052
716 716 1 0. -8.10400 -10.77854 3.77651
717 717 1 0. -9.33604 0.00000 10.43801
718 718 1 0. -7.00203 1.44250 11.32953
719 719 1 0. -7.00203 -1.44250 11.32953
720 720 1 0. -4.66802 2.88500 12.22104
721 721 1 0. -4.66802 0.00000 12.22104
722 722 1 0. -4.66802 -2.88500 12.22104
723 723 1 0. -2.33401 4.32749 13.11255
724 724 1 0. -2.33401 1.44250 13.11255
725 725 1 0. -2.33401 -1.44250 13.11255
726 726 1 0. -2.33401 -4.32749 13.11255
727 727 1 0. -10.77854 3.77651 8.10400
728 728 1 0. -9.88703 6.11052 6.66150
729 729 1 0. -8.44453 5.21901 8.99551
730 730 1 0. -8.99551 8.44453 5.21901
731 731 1 0. -7.55302 7.55302 7.55302
732 732 1 0. -6.11052 6.66150 9.88703
733 733 1 0. -8.10400 10.77854 3.77651
734 734 1 0. -6.66150 9.88703 6.11052
735 735 1 0. -5.21901 8.99551 8.44453
736 736 1 0. -3.77651 8.10400 10.77854
737 737 1 0. 4.32749 13.11255 -2.33401
738 738 1 0. 1.44250 13.11255 -2.33401
739 739 1 0. 2.88500 12.22104 -4.66802
740 740 1 0. -1.44250 13.11255 -2.33401
741 741 1 0. 0.00000 12.22104 -4.66802
742 742 1 0. 1.44250 11.32953 -7.00203
743 743 1 0. -4.32749 13.11255 -2.33401
744 744 1 0. -2.88500 12.22104 -4.66802
745 745 1 0. -1.44250 11.32953 -7.00203
746 746 1 0. 0.00000 10.43801 -9.33604
747 747 1 0. 4.32749 13.11255 2.33401
748 748 1 0. 1.44250 13.11255 2.33401
749 749 1 0. 2.88500 12.22104 4.66802
750 750 1 0. -1.44250 13.11255 2.33401
751 751 1 0. 0.00000 12.22104 4.66802
752 752 1 0. 1.44250 11.32953 7.00203
753 753 1 0. -4.32749 13.11255 2.33401
754 754 1 0. -2.88500 12.22104 4.66802
755 755 1 0. -1.44250 11.32953 7.00203
756 756 1 0. 0.00000 10.43801 9.33604
757 757 1 0. -4.32749 -13.11255 2.33401
758 758 1 0. -2.88500 -12.22104 4.66802
759 759 1 0. -1.44250 -13.11255 2.33401
760 760 1 0. -1.44250 -11.32953 7.00203
761 761 1 0. 0.00000 -12.22104 4.66802
762 762 1 0. 1.44250 -13.11255 2.33401
763 763 1 0. 0.00000 -10.43801 9.33604
764 764 1 0. 1.44250 -11.32953 7.00203
765 765 1 0. 2.88500 -12.22104 4.66802
766 766 1 0. 4.32749 -13.11255 2.33401